! File created by 'Testlink'
!
! SoftPlot for Genesys Testlink
!
! Start 10.000000000000 MHz     Stop 20.000000000000 GHz     Points 660
!
# MHZ S RI R 50
! S-Parameter data, F S11 S21 S12 S22
10.000000000000	0.181041093665	-0.184540108605	-16.280224716669	3.177107000080	0.039226870904	0.017534817654	0.416762258355	-0.212157927116
20.000000000000	0.036538683603	-0.203147718725	-14.052279265336	3.376844487520	0.048265957243	0.016620941438	0.235807876799	-0.249178584264
30.000000000000	-0.032655156708	-0.167101342688	-12.992340901532	2.945547479674	0.054037842714	0.012652589963	0.150752113430	-0.211795575459
40.000000000000	-0.065413921948	-0.134810631250	-12.476572035986	2.569624412114	0.056306128213	0.010812902843	0.110518094509	-0.176415608691
50.000000000000	-0.080182821544	-0.108199483629	-12.209644611634	2.298112108390	0.058247105381	0.008139234678	0.091225481449	-0.148844856075
60.000000000000	-0.089160640727	-0.091373513388	-11.993341944399	2.089381459231	0.056611508099	0.006083353042	0.077983951543	-0.130992446750
70.000000000000	-0.097000036465	-0.076544758845	-11.909354316856	1.979876194629	0.058457436081	0.005826406983	0.069166323196	-0.117067018060
80.000000000000	-0.100290290385	-0.065403013849	-11.833797048559	1.911443119117	0.058702510125	0.004838792600	0.063417127784	-0.106572743305
90.000000000000	-0.102786480129	-0.056007919344	-11.778053725589	1.865477305113	0.058677187784	0.004049166581	0.059445927866	-0.098227088180
100.000000000000	-0.104364430050	-0.047706059544	-11.736652982829	1.849314550853	0.059178538956	0.003323876620	0.057254945807	-0.091491300506
110.000000000000	-0.106270545324	-0.041210346181	-11.700955720589	1.854999472545	0.059337122969	0.002953193962	0.054795738972	-0.086263794871
120.000000000000	-0.107257836701	-0.035118253786	-11.664624079523	1.867156904271	0.059370257347	0.002411027415	0.052736832306	-0.082785828024
130.000000000000	-0.108651207263	-0.030097443018	-11.629351714844	1.881490243974	0.058837844666	0.002309292555	0.050454319589	-0.079746939731
140.000000000000	-0.108502702851	-0.025031951181	-11.613568337300	1.915794222599	0.059342649330	0.001957785035	0.049365131668	-0.076730747349
150.000000000000	-0.108272958567	-0.021130922835	-11.591209167862	1.943904426776	0.059232882453	0.001184938815	0.047976469461	-0.074820137579
160.000000000000	-0.108375845631	-0.016970720048	-11.571713220765	1.985127998409	0.059595744114	0.001128173366	0.047183125092	-0.073117432017
170.000000000000	-0.109609055635	-0.013908614837	-11.549921195256	2.037431562716	0.059196907171	0.000848735556	0.045819687666	-0.072481096790
180.000000000000	-0.109152700500	-0.010478927561	-11.531592100509	2.081379609866	0.059592181996	0.000766927547	0.045301393961	-0.071363646198
190.000000000000	-0.109307427718	-0.006985627066	-11.516291533218	2.134599348705	0.059605273450	0.000533803540	0.044613311620	-0.071004336484
200.000000000000	-0.109062485176	-0.004722198655	-11.496562634726	2.191100710366	0.059509684326	0.000103234899	0.042989937648	-0.070830498007
210.000000000000	-0.109372150856	-0.001538220008	-11.474672150318	2.242465703755	0.059536160371	0.000149949888	0.042155108828	-0.070278599397
220.000000000000	-0.108925991108	0.000713993795	-11.461276950882	2.301231009482	0.059369823512	-0.000314466883	0.041735610343	-0.070506353108
230.000000000000	-0.109822960424	0.003393267718	-11.437055729126	2.360861368899	0.059494860768	-0.000711428145	0.040121966290	-0.070700369638
240.000000000000	-0.109291255326	0.006015867070	-11.423218962023	2.421429426893	0.059516076113	-0.000587516969	0.039231585352	-0.069957069429
250.000000000000	-0.109109421955	0.008131553720	-11.400624312300	2.488604259859	0.059545543736	-0.000572683029	0.038315947326	-0.070240154503
260.000000000000	-0.109439320227	0.010018058051	-11.393543624145	2.557214916942	0.059738563515	-0.000720952896	0.037023397373	-0.071221864020
270.000000000000	-0.108044518170	0.011878372682	-11.368081703185	2.618915708877	0.059349773546	-0.000865585161	0.035948446396	-0.071657029811
280.000000000000	-0.108624690676	0.013669755815	-11.350774376289	2.684648552200	0.059990316534	-0.001251581682	0.034811835731	-0.072082509453
290.000000000000	-0.108705705762	0.015370914529	-11.335487738659	2.752994435839	0.059851360632	-0.001335388761	0.034277453694	-0.072420287382
300.000000000000	-0.108441082154	0.018435246242	-11.313823039876	2.816981437947	0.059649168054	-0.001710113989	0.032344849302	-0.072704693611
310.000000000000	-0.107899039821	0.019469398384	-11.292371913587	2.885953216639	0.059791590915	-0.001927900663	0.031834533606	-0.074182497734
320.000000000000	-0.108841187365	0.021067371200	-11.272419115267	2.953897434520	0.059384371184	-0.001635468586	0.029914011918	-0.074621689943
330.000000000000	-0.108273700915	0.022853994220	-11.255966552577	3.024278339588	0.059581470501	-0.001901395822	0.029253368710	-0.074758233151
340.000000000000	-0.108144338761	0.025359609356	-11.228476142132	3.105196470446	0.059753957216	-0.001692674726	0.028077375658	-0.075585260014
350.000000000000	-0.107673857670	0.025683208732	-11.205272674299	3.170151557981	0.059632500766	-0.002374685536	0.026334511804	-0.077187871597
360.000000000000	-0.107629976599	0.027783123501	-11.183486746246	3.232940510105	0.059675027446	-0.002064629000	0.025212647666	-0.077850256602
370.000000000000	-0.108058702016	0.029726953274	-11.164044966470	3.307180277585	0.059867957733	-0.002363618978	0.023614920082	-0.078481547910
380.000000000000	-0.107501127897	0.030894440863	-11.143564060389	3.374446919366	0.059695576912	-0.002942048408	0.022039389324	-0.079222965717
390.000000000000	-0.107920600981	0.032308718628	-11.120232151108	3.447594011304	0.059857272324	-0.003054511301	0.020413143354	-0.079704467474
400.000000000000	-0.107162182433	0.034300183870	-11.097423498170	3.516573468398	0.060062074615	-0.003056781228	0.020165167927	-0.080808941156
410.000000000000	-0.107189264248	0.035391170610	-11.074950891794	3.592519046342	0.060016748581	-0.002825754152	0.018288019421	-0.081575756320
420.000000000000	-0.107075737473	0.036251115396	-11.047609796195	3.672624430259	0.060005586840	-0.003064209751	0.016068005932	-0.083058751974
430.000000000000	-0.107212645454	0.038082778107	-11.023885145463	3.736694025043	0.059620910497	-0.003108541527	0.014620914004	-0.084183409623
440.000000000000	-0.106693860431	0.039930576394	-10.996854682264	3.804950386515	0.059877549949	-0.003681844633	0.013229981143	-0.084589149188
450.000000000000	-0.106970182283	0.040692408714	-10.974217050374	3.883889344612	0.059804871078	-0.003556400148	0.010639500667	-0.084996006135
460.000000000000	-0.106467607520	0.042619531279	-10.946795694414	3.954179219520	0.060086904751	-0.003515211400	0.009698263320	-0.086427554331
470.000000000000	-0.106413611223	0.043234341459	-10.915820249225	4.023349211842	0.059896696790	-0.003698522852	0.008586460624	-0.087111294954
480.000000000000	-0.105657774442	0.044499133653	-10.887583468910	4.097796251648	0.059925069543	-0.003895851846	0.007138198743	-0.087502773802
490.000000000000	-0.105535825380	0.046498381653	-10.869700349969	4.169779491029	0.059783217990	-0.004096836990	0.005503774397	-0.088831229211
500.000000000000	-0.105438396837	0.047336554802	-10.832857819274	4.243016985907	0.059971871964	-0.004425876172	0.004244327254	-0.089943326497
510.000000000000	-0.104811331073	0.048292869428	-10.804739347615	4.318179715825	0.059765992064	-0.004271012455	0.002655749661	-0.090628097380
520.000000000000	-0.105339535040	0.049575871922	-10.779942713125	4.390993636684	0.059864316798	-0.004183266155	0.000091567407	-0.091370874585
530.000000000000	-0.105141497499	0.050005925096	-10.749323711731	4.459953323756	0.060260995552	-0.004991299220	-0.002072211075	-0.092346861008
540.000000000000	-0.104620437083	0.051509148194	-10.718054200668	4.537510326234	0.060198442746	-0.004814007807	-0.003958674241	-0.093111838165
550.000000000000	-0.104716201402	0.052853023176	-10.686753279893	4.609695189472	0.060211933605	-0.004632625438	-0.005545023539	-0.092567536087
560.000000000000	-0.104777909808	0.054176706164	-10.654248576349	4.682617946703	0.060054150874	-0.004806080426	-0.007594951000	-0.093477824326
570.000000000000	-0.104895482303	0.054815096625	-10.620253000539	4.753576438707	0.060134446165	-0.005154949001	-0.009517954059	-0.094354112744
580.000000000000	-0.104231403119	0.055931679438	-10.595136620439	4.829183198017	0.060331910509	-0.005314075968	-0.011305116609	-0.095574554906
590.000000000000	-0.104061756683	0.056294527171	-10.559059205130	4.903245016358	0.059963601563	-0.005096811031	-0.013504119817	-0.095788132730
600.000000000000	-0.103434456362	0.057954349916	-10.522310440356	4.975288941750	0.060224257245	-0.005542755992	-0.014969646570	-0.097113914948
610.000000000000	-0.104019094822	0.059233265790	-10.489708599445	5.041791316718	0.060431688023	-0.005741470333	-0.017115251275	-0.097083862694
620.000000000000	-0.103585389417	0.060312245085	-10.459375127029	5.116678736893	0.060414537749	-0.005497493846	-0.019225219064	-0.097832588130
630.000000000000	-0.103530768287	0.061667826608	-10.422100874785	5.188139544065	0.060073607921	-0.005851772400	-0.021628232235	-0.098468925647
640.000000000000	-0.103469847894	0.062448262986	-10.381759010837	5.262529543288	0.060309547736	-0.006005574078	-0.023499082214	-0.099243921945
650.000000000000	-0.102816938245	0.063374675968	-10.349072093959	5.338850954307	0.060577335252	-0.005848065140	-0.025481868102	-0.099889732826
660.000000000000	-0.103345698780	0.064723066143	-10.310492102915	5.407462977026	0.060270182946	-0.005938431141	-0.027761221499	-0.099829319278
670.000000000000	-0.102832577884	0.065245239303	-10.274193006349	5.479328470508	0.060430601757	-0.006271755410	-0.029700849413	-0.100789275010
680.000000000000	-0.102843527757	0.066475849060	-10.236786722395	5.546479459932	0.060500485305	-0.006496552785	-0.031395050720	-0.101030005649
690.000000000000	-0.102269459421	0.067540180052	-10.202666105615	5.621498582252	0.060086280885	-0.006462083376	-0.033244370515	-0.101364647982
700.000000000000	-0.102134522832	0.068060158745	-10.156163647247	5.690610316233	0.060464650464	-0.006769839215	-0.035585137336	-0.102131607549
710.000000000000	-0.101939701286	0.069317560302	-10.121485536292	5.763944383580	0.060292233201	-0.006660338569	-0.038338574791	-0.102727243785
720.000000000000	-0.101341394336	0.069885739623	-10.083575784040	5.837003703826	0.060374959606	-0.007287505082	-0.039998658789	-0.103115118789
730.000000000000	-0.101068755322	0.071089274703	-10.049601839026	5.902091958495	0.060614896014	-0.007088941650	-0.041944020231	-0.103193657867
740.000000000000	-0.101311015031	0.071889813097	-9.998995187110	5.976034444488	0.060658411931	-0.007086252643	-0.044516762969	-0.103341396058
750.000000000000	-0.101364225434	0.072672650004	-9.954266327826	6.048270365492	0.060628327338	-0.007070735486	-0.046371852447	-0.104168836516
760.000000000000	-0.100432462137	0.073127174693	-9.919612176906	6.120361077861	0.060830915114	-0.007332294962	-0.049156176668	-0.104488368635
770.000000000000	-0.101268580442	0.074149565256	-9.873767889949	6.187877812779	0.060415979533	-0.007598525522	-0.051624418423	-0.103741908240
780.000000000000	-0.100875476897	0.074587677977	-9.826189490050	6.256537915622	0.060703641801	-0.007822496477	-0.054153362211	-0.103753810286
790.000000000000	-0.100623091253	0.075367131943	-9.786053000353	6.331533360884	0.060576710207	-0.007807308685	-0.056534132326	-0.104129506582
800.000000000000	-0.100944054777	0.076760060010	-9.742273402808	6.398579374792	0.060930854947	-0.007747591798	-0.059591011666	-0.104489843193
810.000000000000	-0.100679632653	0.078544356353	-9.693694167989	6.480521559890	0.060489778238	-0.008001347748	-0.061478624542	-0.103468444193
820.000000000000	-0.099180439876	0.078680018336	-9.638931685855	6.534004597401	0.060949242264	-0.007918861541	-0.063517165834	-0.104184290319
830.000000000000	-0.099494677102	0.078787990455	-9.604595721379	6.607662606526	0.060907706965	-0.008042315498	-0.064811164618	-0.104694427797
840.000000000000	-0.099186957589	0.079920832820	-9.559887630399	6.673478811106	0.060692740203	-0.008644893021	-0.067738020066	-0.104853039183
850.000000000000	-0.099258616714	0.080850621768	-9.505510160423	6.746404250611	0.060868674082	-0.008499943367	-0.070522864796	-0.105653190602
860.000000000000	-0.099054356593	0.080884803414	-9.457925980925	6.811253995511	0.061165459125	-0.008729466297	-0.073570388212	-0.104568344422
870.000000000000	-0.098991299345	0.082047255408	-9.418187963252	6.878532229930	0.060878985029	-0.008717435504	-0.075477773387	-0.105107172313
880.000000000000	-0.099529597675	0.082434090433	-9.361223238884	6.951216100417	0.060759654571	-0.008922815878	-0.077845077923	-0.104618117754
890.000000000000	-0.098599238061	0.083873172863	-9.315419061881	7.015731694228	0.060972963191	-0.009182185609	-0.080133807493	-0.104520769167
900.000000000000	-0.098436451552	0.084027400125	-9.264193439216	7.083594884120	0.061316543816	-0.009242153922	-0.081961605163	-0.104439196925
910.000000000000	-0.098319304457	0.084882849323	-9.216139835466	7.155822297937	0.061025507747	-0.009258702329	-0.084522479741	-0.104946630385
920.000000000000	-0.098144284235	0.085277459052	-9.159420714335	7.216900601794	0.061075244381	-0.009458489900	-0.087426528601	-0.105087707659
930.000000000000	-0.098521422453	0.086232767429	-9.102657214607	7.283528085456	0.061050489730	-0.009597797437	-0.090328395489	-0.104160712271
940.000000000000	-0.098460255978	0.087078083252	-9.053629469941	7.350902521663	0.061029362106	-0.009584965156	-0.092750208041	-0.104447317971
950.000000000000	-0.098028750387	0.087148982129	-9.005990178062	7.410226792425	0.061074350078	-0.009939052243	-0.095541567908	-0.103947381762
960.000000000000	-0.098411100406	0.087807002835	-8.945633984651	7.481671657144	0.061431075158	-0.009830175653	-0.098271199002	-0.103462203896
970.000000000000	-0.097904435347	0.088764513404	-8.890945038744	7.544843687741	0.061273783134	-0.010138126208	-0.100812256932	-0.103028178247
980.000000000000	-0.098358054410	0.089530077440	-8.834857133756	7.611390958074	0.061127533103	-0.010375651014	-0.103686211752	-0.102755420187
990.000000000000	-0.098361081030	0.089296551463	-8.780658515505	7.678273230362	0.061216721974	-0.010270045509	-0.106022528332	-0.102119145140
1000.000000000000	-0.098519459802	0.090155214819	-8.717615614994	7.743246727558	0.061469672193	-0.010514221885	-0.108481107594	-0.101619853467
1025.000000000000	-0.097527444284	0.092638445485	-8.574617600534	7.897222370499	0.061418331604	-0.011014296612	-0.114598459281	-0.100404937290
1050.000000000000	-0.098484233436	0.092985043745	-8.428497993358	8.060298043740	0.061155222711	-0.011495717959	-0.121861189695	-0.099058484619
1075.000000000000	-0.097408863007	0.094279156259	-8.287135452847	8.214872186232	0.061405017160	-0.011840282585	-0.128044341778	-0.097498944728
1100.000000000000	-0.097856842583	0.096128272299	-8.124434051861	8.361713061036	0.061673256650	-0.012175378204	-0.135374537528	-0.095720143515
1125.000000000000	-0.098198701672	0.097232517102	-7.964560882341	8.515561978449	0.061729183160	-0.012514255645	-0.141684711071	-0.093500403392
1150.000000000000	-0.099392131633	0.098766517712	-7.805946455555	8.667915304803	0.061649503507	-0.013097590786	-0.148904095936	-0.090078641864
1175.000000000000	-0.098721264035	0.100774553888	-7.629600999811	8.807644185217	0.061438060857	-0.013435995730	-0.154686753071	-0.087322851162
1200.000000000000	-0.098927735870	0.101678588122	-7.460521994581	8.935518087732	0.061634952451	-0.013610447522	-0.160974933388	-0.084086307754
1225.000000000000	-0.099599042316	0.103668681135	-7.288837261891	9.074575821200	0.061797906403	-0.014170581550	-0.167568512776	-0.080570658235
1250.000000000000	-0.099319835588	0.104450805465	-7.113868119399	9.204864120489	0.061878143336	-0.014239252337	-0.175067950556	-0.077260232463
1275.000000000000	-0.100153083255	0.104748309914	-6.939725843469	9.339883292399	0.061716220763	-0.015102924880	-0.180414924469	-0.073884545733
1300.000000000000	-0.100020893327	0.107382081087	-6.754171228407	9.465905758072	0.062001478668	-0.015384299837	-0.186920497613	-0.069987943859
1325.000000000000	-0.100894867438	0.108093383122	-6.572062361163	9.591807391509	0.062181618415	-0.015933961439	-0.193480939226	-0.066239747698
1350.000000000000	-0.102000092817	0.109382703100	-6.380222261148	9.707487313557	0.062098792299	-0.016252653253	-0.200326694858	-0.062501730139
1375.000000000000	-0.102546379528	0.110009826560	-6.190145692373	9.824231863720	0.061997046938	-0.016641884975	-0.205564941878	-0.057930615870
1400.000000000000	-0.103290901633	0.111946607114	-5.996203123454	9.937482163397	0.062087725890	-0.017150642322	-0.212619725415	-0.052175427943
1425.000000000000	-0.104792774677	0.112961350039	-5.799114174260	10.050598052592	0.062112947837	-0.017655431522	-0.218608378986	-0.046768927430
1450.000000000000	-0.106364410517	0.114445273461	-5.587948056731	10.152356806851	0.061937768110	-0.018125651610	-0.225727225773	-0.040917207562
1475.000000000000	-0.106058930192	0.116934052635	-5.380165367533	10.242770046752	0.062151245526	-0.018683124519	-0.230156778265	-0.035210138524
1500.000000000000	-0.106861848292	0.118400837886	-5.173005270924	10.333455464963	0.062196277025	-0.018938928266	-0.236075654084	-0.029469048907
1525.000000000000	-0.106673695285	0.119856747702	-4.964060227394	10.409832691512	0.061923686299	-0.019376090444	-0.239575190724	-0.023199847048
1550.000000000000	-0.108080278955	0.120790090048	-4.760598542860	10.493439822472	0.062144966065	-0.020035862255	-0.244194737379	-0.016640719004
1575.000000000000	-0.108873911341	0.121526765321	-4.556016361086	10.569622189607	0.062287896764	-0.020556303146	-0.249450980047	-0.011317730246
1600.000000000000	-0.109776100275	0.122603750485	-4.343599919368	10.648272328486	0.062206210418	-0.021028297358	-0.255095961570	-0.005789427190
1625.000000000000	-0.111928046296	0.124488766926	-4.121473912433	10.722339242042	0.062204612609	-0.021671055007	-0.260232953643	0.001310764313
1650.000000000000	-0.113354073112	0.126132595212	-3.901914309616	10.791464035690	0.062260216798	-0.021938022243	-0.264909446423	0.008715328877
1675.000000000000	-0.114427319038	0.127853471961	-3.685592346381	10.854006674490	0.062140772917	-0.022550208304	-0.270319613356	0.015881124614
1700.000000000000	-0.116037492868	0.131129868959	-3.447299340627	10.906522371792	0.061946741787	-0.023075485946	-0.274824434766	0.023749121556
1725.000000000000	-0.117593378298	0.132394890605	-3.232927917172	10.948387801734	0.061941796578	-0.023515680107	-0.278366413841	0.031323961908
1750.000000000000	-0.118964231883	0.134668499916	-3.007711919810	10.995066899384	0.062169281537	-0.024174862364	-0.282544660911	0.038214944393
1775.000000000000	-0.120582380512	0.135720563750	-2.778842101659	11.041263192092	0.061795423356	-0.024602224284	-0.286820015073	0.046930079493
1800.000000000000	-0.121830552095	0.139292376712	-2.546361259010	11.066824827605	0.061436372603	-0.025409839828	-0.291054246552	0.055596224012
1825.000000000000	-0.122675084831	0.141243177986	-2.319677209416	11.084888175596	0.061731400866	-0.025740854134	-0.293502560804	0.063983604422
1850.000000000000	-0.126046191507	0.143570552236	-2.091139270415	11.120171487244	0.061685310531	-0.026224584180	-0.297037930909	0.072151183847
1875.000000000000	-0.124706279316	0.146726588536	-1.865469358328	11.109098526867	0.061108263686	-0.026817035612	-0.298297745866	0.081891497936
1900.000000000000	-0.126373929283	0.148475580787	-1.648499638655	11.126909077371	0.061206862900	-0.027486742319	-0.301948255223	0.088550188531
1925.000000000000	-0.128560594574	0.150989298687	-1.411381812406	11.141398980515	0.061111398549	-0.027966025336	-0.304239225109	0.098179168345
1950.000000000000	-0.129942482968	0.153839946230	-1.180720126389	11.136888735171	0.060992211045	-0.028493677456	-0.306256889990	0.107164074957
1975.000000000000	-0.132033397363	0.156735671676	-0.952559796313	11.138835665610	0.061095142744	-0.029224339803	-0.309503318056	0.115361763843
2000.000000000000	-0.134896901000	0.163141576885	-0.678379394898	11.121370318899	0.060870669155	-0.030111301882	-0.313515446642	0.128203089968
2025.000000000000	-0.130840628812	0.163901107476	-0.508183868209	11.064864295360	0.060329646276	-0.030123936057	-0.309177173870	0.134961816225
2050.000000000000	-0.134472390173	0.166326741922	-0.276953272833	11.057662307139	0.060310554387	-0.030393078036	-0.312272427997	0.142645843662
2075.000000000000	-0.134363461763	0.169857067530	-0.054522806036	11.035673667560	0.060177895407	-0.031544013890	-0.313376495360	0.152181441759
2100.000000000000	-0.136617407858	0.173354855055	0.177669153578	10.993834497218	0.060146502229	-0.031927666554	-0.313774542442	0.162085131203
2125.000000000000	-0.137226837072	0.176385481751	0.386831026145	10.955758584692	0.059761925777	-0.032553018925	-0.314330976916	0.170671347214
2150.000000000000	-0.139556946835	0.180355560102	0.613624481924	10.914209502938	0.059591116283	-0.032910342038	-0.315698388938	0.178978220887
2175.000000000000	-0.140939109733	0.183970034608	0.843962110316	10.865437858636	0.059428356213	-0.033659847278	-0.315789497598	0.190063374712
2200.000000000000	-0.141403421085	0.188072445658	1.051844052827	10.804282926998	0.059305903439	-0.033901873111	-0.315122803551	0.200358780228
2225.000000000000	-0.143729669602	0.191220018110	1.265651132715	10.748040535429	0.059169893152	-0.034824533641	-0.314679262626	0.209450549186
2250.000000000000	-0.144653782896	0.196630297603	1.489855840853	10.683262660896	0.058866387173	-0.035630013843	-0.314540373089	0.219968269422
2275.000000000000	-0.145242067374	0.200698908934	1.699973230521	10.604491071383	0.058340262736	-0.036019607262	-0.313657538516	0.230296503259
2300.000000000000	-0.145759428980	0.206277665787	1.920498632657	10.527008631572	0.057734484264	-0.036547870093	-0.313079499647	0.240605091202
2325.000000000000	-0.146749729869	0.210524259647	2.127287524450	10.440900445275	0.057386571100	-0.037025481157	-0.310351296252	0.250677451936
2350.000000000000	-0.147428888590	0.216204202985	2.331504036800	10.342041528551	0.057443739880	-0.037717826959	-0.308694566582	0.261894862765
2375.000000000000	-0.147271461000	0.221244180863	2.542031279652	10.238562819388	0.057090696116	-0.038533018911	-0.306211766751	0.271746175823
2400.000000000000	-0.147093557647	0.228199386519	2.741607544307	10.118698984530	0.056263364193	-0.038939074957	-0.302782401794	0.283898819441
2425.000000000000	-0.147535386074	0.231719443441	2.915993735245	10.024585422419	0.055734993341	-0.039514831566	-0.299800323507	0.291165607528
2450.000000000000	-0.144159729621	0.235253104294	3.067020471317	9.913476616159	0.055444741413	-0.039636371662	-0.294398224405	0.298748155863
2475.000000000000	-0.146720057978	0.241424855412	3.290139246761	9.814393778885	0.055432262545	-0.040424171457	-0.294440935172	0.309379251611
2500.000000000000	-0.145684178095	0.244757773303	3.445296061323	9.710448861966	0.055019731100	-0.040598485459	-0.290619876849	0.317547720327
2525.000000000000	-0.147118678405	0.251837198680	3.651775477334	9.585816604114	0.054393831764	-0.041718054322	-0.287737443494	0.330366886702
2550.000000000000	-0.147855855967	0.259429812821	3.844862234913	9.437699229733	0.054084979574	-0.042207185599	-0.283676483612	0.341429448961
2575.000000000000	-0.141235592832	0.267215801109	3.951967365989	9.258394596880	0.053025782851	-0.042659148484	-0.271842899823	0.351670458199
2600.000000000000	-0.142595250809	0.266815145891	4.117315280877	9.207851058964	0.053074153995	-0.042756445834	-0.271855450400	0.355424168602
2625.000000000000	-0.143296911778	0.272805027156	4.309492445202	9.077918715659	0.052833832539	-0.043151086849	-0.269669863689	0.365548455585
2650.000000000000	-0.143314355214	0.280331368160	4.475533278834	8.931450627919	0.052464870605	-0.043674314618	-0.265012052633	0.376614273461
2675.000000000000	-0.140685122463	0.287519851983	4.614496917056	8.775647120812	0.051855533513	-0.044453464931	-0.258901842035	0.385888458370
2700.000000000000	-0.140439117435	0.293655239453	4.768383459559	8.631007533520	0.051358537843	-0.044893501243	-0.254916355228	0.396472144123
2725.000000000000	-0.138311945193	0.299563203668	4.917747906969	8.478250778251	0.050822988498	-0.045051158735	-0.249025101154	0.405522386476
2750.000000000000	-0.137432048710	0.307087519714	5.063584919852	8.314701328505	0.050288076868	-0.045839290488	-0.243511206899	0.416138550831
2775.000000000000	-0.132319451022	0.312684960701	5.144269868382	8.159446846796	0.049637561057	-0.046026419876	-0.233855813708	0.423083338456
2800.000000000000	-0.132162771445	0.318280909788	5.295866758868	8.022835339798	0.049313340446	-0.046391418926	-0.229811619835	0.431406148218
2825.000000000000	-0.130689586357	0.324343777731	5.422834720550	7.863228884948	0.048582537723	-0.047211218442	-0.223871214415	0.440687357983
2850.000000000000	-0.128340126701	0.332276205526	5.548712524767	7.685854911360	0.048421862627	-0.047235912034	-0.218388178001	0.450714273696
2875.000000000000	-0.125600530642	0.337950609657	5.653911486283	7.530868631322	0.047766865216	-0.047852668815	-0.210433107574	0.457774908502
2900.000000000000	-0.123198336333	0.345393093039	5.763322840816	7.355379750021	0.046855921477	-0.048356220940	-0.203532633863	0.466616812595
2925.000000000000	-0.119973596434	0.351322147766	5.857094338870	7.199096813390	0.046320383911	-0.048488261796	-0.195594291346	0.473733010631
2950.000000000000	-0.116585742646	0.356037662045	5.948894518493	7.051733604785	0.045667538558	-0.048825781809	-0.188298151814	0.480285803609
2975.000000000000	-0.114462863722	0.363639863849	6.045137700159	6.874010697087	0.045269599301	-0.049359100213	-0.181212891652	0.489795927150
3000.000000000000	-0.112601201864	0.371503103782	6.156240160504	6.697459642353	0.044873492242	-0.049801890139	-0.174812498506	0.497799782394
3025.000000000000	-0.105845305873	0.382824853750	6.186913621204	6.451284220522	0.043749472739	-0.050429354351	-0.161187484232	0.510026439958
3050.000000000000	-0.100133065363	0.377423686121	6.230889121071	6.439130770617	0.043546011312	-0.049694380600	-0.154682554293	0.503619060170
3075.000000000000	-0.100749281586	0.387001470125	6.370309466896	6.226649295735	0.043171840055	-0.050557715765	-0.151410155884	0.515447840883
3100.000000000000	-0.095950563926	0.393739423698	6.414876592084	6.052084071576	0.042283001172	-0.050826448889	-0.140492385399	0.523141223350
3125.000000000000	-0.093838271040	0.400235469675	6.505839635931	5.886927094187	0.041813260079	-0.050873459069	-0.134288946174	0.529570110858
3150.000000000000	-0.089009184545	0.405664685841	6.556948192389	5.714456565205	0.041294956411	-0.051292811229	-0.125621147369	0.536554280036
3175.000000000000	-0.084197511698	0.411678054544	6.605192387273	5.559458052208	0.040591759967	-0.051450299379	-0.117137669552	0.541481193865
3200.000000000000	-0.082780998235	0.418640963789	6.670194996666	5.370730760587	0.039998328066	-0.051840390736	-0.109026378692	0.549238254549
3225.000000000000	-0.077556979018	0.425454789865	6.704154553692	5.188314926563	0.039261864641	-0.051917006915	-0.100116353506	0.555367654919
3250.000000000000	-0.070880104115	0.430265480884	6.719733147802	5.025038581771	0.038493875876	-0.052180283270	-0.090391230136	0.560664597332
3275.000000000000	-0.066534828819	0.435297576280	6.764011408857	4.873443689219	0.038045821163	-0.052383289520	-0.082318285948	0.564947309560
3300.000000000000	-0.063871583918	0.441219581688	6.818716253314	4.715145946633	0.037397331546	-0.053048918714	-0.074773468621	0.570707196405
3325.000000000000	-0.057887806500	0.447194331890	6.838664132112	4.527581881266	0.036822021849	-0.052944113349	-0.066055955212	0.576626586960
3350.000000000000	-0.051438758949	0.454582569872	6.835715600770	4.352364930608	0.036362596407	-0.053082920621	-0.055975504418	0.581713498873
3375.000000000000	-0.044686106396	0.457392380159	6.837842685229	4.232868341758	0.035540314826	-0.053040569805	-0.045978361123	0.585186790208
3400.000000000000	-0.039135037779	0.461764842579	6.841367949775	4.110726295294	0.035215023196	-0.053359778817	-0.036080960506	0.587436990369
3425.000000000000	-0.036195465303	0.467766807134	6.882209169693	3.922232357374	0.034627816505	-0.053509921248	-0.028171217923	0.592151572890
3450.000000000000	-0.032347918578	0.471324639212	6.916986673692	3.770051011525	0.033956020971	-0.053506556729	-0.021345886889	0.595886815116
3475.000000000000	-0.027537926971	0.477781125667	6.912420532637	3.598666802489	0.032985031493	-0.053793993418	-0.012960944151	0.601780644540
3500.000000000000	-0.020848127740	0.482074293666	6.898140798177	3.460251056204	0.032459395806	-0.053491622441	-0.002794683016	0.604046276982
3525.000000000000	-0.016224652600	0.488167538741	6.910500736572	3.300177140278	0.032165818053	-0.053570108419	0.005184106005	0.607045695716
3550.000000000000	-0.011007328633	0.490954968671	6.915885849616	3.148865187257	0.031712993562	-0.053603992805	0.012862960524	0.610462424567
3575.000000000000	-0.004608213282	0.496529478230	6.883526099344	3.008209238029	0.030684494554	-0.053640440382	0.022855235608	0.614023884272
3600.000000000000	-0.001283634391	0.501528673371	6.880106224147	2.845092178050	0.030413823643	-0.053824525717	0.030322012350	0.617675179842
3625.000000000000	0.005214742825	0.506213359532	6.835570945652	2.718521796756	0.029965217848	-0.053544018528	0.040968479361	0.620924185114
3650.000000000000	0.011508515876	0.510674957231	6.829230027543	2.579812202825	0.029394894553	-0.053971855431	0.048048962087	0.622843810752
3675.000000000000	0.019349435894	0.514159016923	6.803966404659	2.469216585654	0.028736280808	-0.053930904523	0.059221152746	0.625290831787
3700.000000000000	0.021216722082	0.517476611567	6.811038215077	2.308593010013	0.028195763632	-0.054019807124	0.065009269806	0.626978099765
3725.000000000000	0.029750171028	0.521571102581	6.772444049391	2.207659526517	0.027654269176	-0.053772966688	0.074642320699	0.627160132361