! File created by 'Testlink'
!
! SoftPlot for Genesys Testlink
!
! Start 10.000000000000 MHz     Stop 20.000000000000 GHz     Points 660
!
# MHZ S RI R 50
! S-Parameter data, F S11 S21 S12 S22
10.000000000000	0.547890020848	-0.437094913730	-9.371119197895	3.612019568431	0.047528658233	0.057982418274	0.440033065400	-0.396582655936
20.000000000000	0.250852762454	-0.407642246270	-7.191571049530	3.226195422856	0.086713028159	0.047639561166	0.172505253200	-0.375383807853
30.000000000000	0.135472869159	-0.319026755412	-6.312204887487	2.615106844412	0.100907820188	0.035784459798	0.063504066623	-0.290572082918
40.000000000000	0.084794335923	-0.255706110651	-5.924756266293	2.195395287250	0.107343177760	0.027343799880	0.016638984510	-0.227817664978
50.000000000000	0.062074867888	-0.211747106130	-5.725968702020	1.917562691078	0.110977481291	0.022059531154	-0.004324436959	-0.183262781098
60.000000000000	0.040640498578	-0.182881892545	-5.607345580931	1.732873593035	0.111771422256	0.014232090968	-0.022513072372	-0.155153863405
70.000000000000	0.035469671801	-0.158060440684	-5.532939085933	1.612372553462	0.112663665654	0.012177694748	-0.028882598672	-0.129188640860
80.000000000000	0.029560964027	-0.141193346110	-5.479808481527	1.540271674061	0.113748035660	0.008826362954	-0.034396004108	-0.110283081495
90.000000000000	0.025351888562	-0.127595420610	-5.442111307260	1.494861169771	0.113901364132	0.006133575588	-0.038121156613	-0.095573193972
100.000000000000	0.022404419201	-0.116807385611	-5.408512513590	1.469558651001	0.114159506508	0.004005906504	-0.040136512530	-0.082264822725
110.000000000000	0.019621393805	-0.107988572702	-5.384332016307	1.465148256322	0.114506489555	0.001692746365	-0.042260175537	-0.071059949163
120.000000000000	0.017373368747	-0.100912208679	-5.361461605156	1.465897165190	0.114568758457	-0.000211952201	-0.043040833893	-0.061494970212
130.000000000000	0.016270300076	-0.095762800930	-5.342264109211	1.474020881991	0.114662061941	-0.000830905639	-0.044088371625	-0.052922235394
140.000000000000	0.014173879736	-0.089121566543	-5.318902488252	1.493240165159	0.114299834599	-0.003243576589	-0.045906329265	-0.045363537781
150.000000000000	0.012421131784	-0.085271702914	-5.296498259020	1.517233913810	0.114269643408	-0.004987483466	-0.046800371354	-0.038702176447
160.000000000000	0.011966122172	-0.081143037555	-5.280674214679	1.542791663020	0.114216472217	-0.006519313673	-0.046534929425	-0.032789004123
170.000000000000	0.010205699666	-0.077186858618	-5.262180404250	1.572572055909	0.113985373208	-0.007707065274	-0.047096253002	-0.027357054675
180.000000000000	0.009727590298	-0.075026323888	-5.244425580335	1.604516874802	0.113994661345	-0.009022555729	-0.046887175222	-0.022371780659
190.000000000000	0.008338390356	-0.072536424206	-5.225343632723	1.643815390531	0.114163340229	-0.010425909325	-0.046912121590	-0.017603865009
200.000000000000	0.008076049009	-0.070775567511	-5.209896358348	1.682807910478	0.113941426917	-0.011835217324	-0.047236224519	-0.013067266598
210.000000000000	0.005854958106	-0.067769362130	-5.187140663606	1.721408413321	0.113600807360	-0.012673843085	-0.047927750524	-0.008459736115
220.000000000000	0.004784506831	-0.066186984980	-5.167726338484	1.764486882050	0.113498605197	-0.013756589375	-0.047802212934	-0.004056530280
230.000000000000	0.004075191007	-0.065042690779	-5.146847914664	1.807626984313	0.113310607706	-0.014862884979	-0.047660598755	-0.000578194842
240.000000000000	0.002739378908	-0.063802032637	-5.128513701115	1.853715495277	0.113170676902	-0.015988110144	-0.048030827632	0.003255877166
250.000000000000	0.001180658141	-0.062812502042	-5.105717081977	1.898058711857	0.112684163391	-0.017066892464	-0.048436939106	0.006327166272
260.000000000000	0.001528290192	-0.060370223357	-5.085992316541	1.948370739661	0.112320680325	-0.018279340681	-0.048098477561	0.010530974563
270.000000000000	0.000327873778	-0.060787744967	-5.065489314176	1.998784649515	0.112526403718	-0.019309231446	-0.047629880495	0.012734762642
280.000000000000	-0.001824671351	-0.059240503178	-5.042421777063	2.043050865901	0.112628173890	-0.020355480991	-0.047597884810	0.016231104737
290.000000000000	-0.002200013128	-0.058483854531	-5.019891231008	2.091472771943	0.111953004629	-0.021513064680	-0.047512151208	0.019108104582
300.000000000000	-0.003560549761	-0.058103252720	-4.995796596479	2.141282692814	0.111784481638	-0.022652514141	-0.047633221417	0.021900927724
310.000000000000	-0.005646652516	-0.057227758694	-4.969047585990	2.188153942556	0.111724652976	-0.023778503034	-0.047967126037	0.025070648892
320.000000000000	-0.006752041699	-0.056022641281	-4.946391340243	2.238176364037	0.111114388926	-0.025030746389	-0.047470525890	0.028394434533
330.000000000000	-0.007644416531	-0.054964576522	-4.922501636931	2.284502258568	0.110804196459	-0.025545318222	-0.047382723460	0.031435740671
340.000000000000	-0.009155646157	-0.054995991772	-4.895337965456	2.334932311922	0.110636776416	-0.026472807104	-0.047528086999	0.033828916197
350.000000000000	-0.009899147776	-0.053812901363	-4.868736606652	2.382215603568	0.110641699222	-0.027678927285	-0.046265931178	0.036608683737
360.000000000000	-0.011713739380	-0.053750922153	-4.840889731749	2.432662639319	0.109958775042	-0.028329247769	-0.047466028212	0.038766509491
370.000000000000	-0.012808493930	-0.052339483710	-4.811349283671	2.483401237776	0.109948111896	-0.029071189146	-0.047436449990	0.041599170837
380.000000000000	-0.014956564250	-0.051272806382	-4.781839296025	2.531281928717	0.109318151082	-0.030391340824	-0.047338799225	0.044525308450
390.000000000000	-0.016381766822	-0.050255665494	-4.754884028480	2.580553566659	0.109211430510	-0.031068798329	-0.047215938560	0.047577339419
400.000000000000	-0.018656442836	-0.049841686939	-4.724429918126	2.629407919081	0.108570819840	-0.032161562156	-0.047123474294	0.050779174741
410.000000000000	-0.018869289727	-0.049592597362	-4.695836411935	2.679466995603	0.108273194529	-0.032846163492	-0.046819387630	0.052651079170
420.000000000000	-0.020568158872	-0.048757564548	-4.664998833417	2.727344445015	0.108135712526	-0.033816302496	-0.046487233183	0.055592073436
430.000000000000	-0.021817727587	-0.047686656376	-4.635383547022	2.776238724698	0.107586141596	-0.034452490710	-0.045903077061	0.058662902202
440.000000000000	-0.023358814612	-0.047375869863	-4.603770904592	2.825573073580	0.107388532952	-0.035671870778	-0.045553328838	0.060605023606
450.000000000000	-0.025373878451	-0.047059493082	-4.569398677806	2.874774791380	0.106865592627	-0.036593146468	-0.045662012216	0.062396356884
460.000000000000	-0.025789453582	-0.046017182597	-4.536409776294	2.924493849972	0.106622865943	-0.037277493539	-0.045535220417	0.064945497572
470.000000000000	-0.027816860897	-0.044778311436	-4.502729930515	2.970607000898	0.106154741156	-0.038255544361	-0.045414147157	0.067526186344
480.000000000000	-0.029279417442	-0.044606525886	-4.468755862763	3.020501322640	0.105561693085	-0.039032814983	-0.045280512310	0.069643431961
490.000000000000	-0.030889926319	-0.043657306479	-4.432613307778	3.067674547507	0.105310757012	-0.039792499485	-0.044909301066	0.072446617313
500.000000000000	-0.032333594274	-0.042406449085	-4.399850684713	3.112259856629	0.105008476380	-0.040844275164	-0.043528452742	0.075272084138
510.000000000000	-0.033896067918	-0.042359259912	-4.361416715001	3.163483430169	0.104558097270	-0.041599303402	-0.043314961609	0.078035521399
520.000000000000	-0.035205507090	-0.041167044667	-4.327172362748	3.208312155421	0.104097574377	-0.042477991308	-0.043206313112	0.080375225273
530.000000000000	-0.036759203191	-0.039854990701	-4.288720474047	3.257456654777	0.103457077142	-0.042902720579	-0.043024053581	0.082467126817
540.000000000000	-0.038068420536	-0.038971032735	-4.250446563157	3.302072731163	0.103304556304	-0.044161774781	-0.042950360903	0.085045297282
550.000000000000	-0.039737653407	-0.037850821919	-4.211824422775	3.347468411936	0.102856012751	-0.044916208174	-0.041985211933	0.087657771534
560.000000000000	-0.041296269253	-0.037269710357	-4.174580135143	3.395315807458	0.102100153046	-0.045922520994	-0.041834089467	0.089635224371
570.000000000000	-0.042002883085	-0.035993717022	-4.134207005132	3.436001613201	0.101675306723	-0.046289105614	-0.041108702948	0.092745864809
580.000000000000	-0.044295656934	-0.034590519018	-4.092920328010	3.483731329110	0.101053865894	-0.046943203765	-0.041114042212	0.094508456720
590.000000000000	-0.045394839732	-0.032994877586	-4.054369589860	3.526360655476	0.100721983405	-0.047966698613	-0.039987926749	0.096615793214
600.000000000000	-0.046953786901	-0.032294364019	-4.012436915284	3.571221640133	0.100462706521	-0.048479498316	-0.039936958764	0.099212385675
610.000000000000	-0.048337277253	-0.031325110271	-3.970394343611	3.613703157018	0.099905733207	-0.049598265994	-0.039437747360	0.101659636790
620.000000000000	-0.050057736975	-0.029801727473	-3.927085431311	3.656191622293	0.098911594802	-0.050349247063	-0.039361556233	0.104004697289
630.000000000000	-0.051439632322	-0.028243832922	-3.884269139900	3.696424698701	0.098542313252	-0.050924133527	-0.038639082217	0.106996994985
640.000000000000	-0.052792962735	-0.026605453062	-3.843088831309	3.737055274327	0.098464797986	-0.051941852946	-0.038269645293	0.109863037419
650.000000000000	-0.053859368119	-0.025870766732	-3.796907359931	3.781532422043	0.097755810924	-0.052378898854	-0.037427634385	0.111778942966
660.000000000000	-0.054570625789	-0.023754930600	-3.754469671836	3.820934913663	0.097086847631	-0.053052539186	-0.036444369543	0.113941347147
670.000000000000	-0.055579817656	-0.022642616192	-3.710059597091	3.863815261091	0.096587377256	-0.054083117803	-0.036173212018	0.116315541201
680.000000000000	-0.057070356533	-0.021164395692	-3.666507905153	3.898856017720	0.095990123715	-0.054728317134	-0.035041435359	0.118472902724
690.000000000000	-0.058097398392	-0.019106160687	-3.619746104487	3.942345344167	0.095441447843	-0.055262752867	-0.034583727819	0.120726592541
700.000000000000	-0.059725174332	-0.018309116117	-3.572550698111	3.980212161176	0.095176126935	-0.055962607708	-0.034185942277	0.122941502110
710.000000000000	-0.060541307191	-0.016257888899	-3.527594946234	4.017072139308	0.094212625517	-0.056684962922	-0.032710705268	0.125464854950
720.000000000000	-0.061849806804	-0.014246069632	-3.479800930992	4.057592283832	0.093858651324	-0.057524963771	-0.032899524762	0.127914393663
730.000000000000	-0.062531779646	-0.013285312010	-3.434478926752	4.094429666948	0.093238872915	-0.058241292244	-0.030884068352	0.130081690988
740.000000000000	-0.063933716500	-0.011567494875	-3.385161879880	4.129462070516	0.092319710962	-0.058918339845	-0.030391738737	0.132687828353
750.000000000000	-0.064656152398	-0.009859853715	-3.337936278007	4.167060439293	0.092393566725	-0.059441419575	-0.029297647691	0.135046020773
760.000000000000	-0.065692092291	-0.007584196588	-3.287822152361	4.201660952989	0.091382242110	-0.059877231067	-0.028680632343	0.137754079032
770.000000000000	-0.066490916273	-0.005889685722	-3.236965232776	4.234626361016	0.090909941686	-0.060186331270	-0.028063667850	0.139911862295
780.000000000000	-0.067596890392	-0.003394764653	-3.188888956665	4.267767225429	0.090230008895	-0.061273394963	-0.027219467368	0.142449133682
790.000000000000	-0.067916715572	-0.001095353408	-3.137631428424	4.303056944496	0.089511370922	-0.061885709859	-0.026455333715	0.144691580146
800.000000000000	-0.069161593553	0.000524928508	-3.089720320655	4.339893373966	0.089099169188	-0.062689350206	-0.025042709300	0.147113423293
810.000000000000	-0.069673571443	0.002966637952	-3.035707700772	4.372531760178	0.088171108313	-0.062999098882	-0.024578551947	0.150166946527
820.000000000000	-0.070057079932	0.004008134352	-2.987395501179	4.402278235466	0.087690444607	-0.063657848565	-0.022285662778	0.151808401409
830.000000000000	-0.071161430252	0.005449525323	-2.936138244691	4.434356060527	0.087069462473	-0.064204924743	-0.021633498919	0.154067581520
840.000000000000	-0.071483718561	0.007608932789	-2.883864927229	4.467411139987	0.086370629699	-0.064923644901	-0.020713420732	0.156088038574
850.000000000000	-0.071336072222	0.009236655996	-2.832599647914	4.498368744440	0.085826784927	-0.065357423065	-0.019202441644	0.158230780680
860.000000000000	-0.071767081080	0.011709575155	-2.780451427057	4.526752376136	0.085257189572	-0.065770421450	-0.018355415153	0.160297960838
870.000000000000	-0.072115264165	0.013813187132	-2.726859438480	4.552098627806	0.084401602771	-0.066322669958	-0.017229480654	0.162684018573
880.000000000000	-0.072494987407	0.015968864396	-2.674029027785	4.581607176806	0.083721045251	-0.067313583327	-0.016400597848	0.164888269874
890.000000000000	-0.072667751698	0.018100095265	-2.619072335408	4.612129014917	0.083317831614	-0.067552299511	-0.015041315831	0.167165488758
900.000000000000	-0.073749859364	0.020594771812	-2.565926798630	4.639955651561	0.082524526539	-0.068189033388	-0.013591673764	0.169780185060
910.000000000000	-0.073919657333	0.022367292526	-2.513248723539	4.663205880228	0.081874648364	-0.068765386795	-0.012484412901	0.172097046068
920.000000000000	-0.074138401852	0.024112690792	-2.459634732324	4.690173303090	0.081296880293	-0.069114374908	-0.010830737162	0.174381717292
930.000000000000	-0.074396401157	0.026000506616	-2.402304834610	4.715620845192	0.080303672337	-0.069669659396	-0.009101179195	0.176962336284
940.000000000000	-0.073880422969	0.028070309430	-2.349249783310	4.740986086988	0.079755228605	-0.070258421777	-0.007617488543	0.179053302849
950.000000000000	-0.074009256721	0.030054194527	-2.292844872121	4.762792671143	0.079316093173	-0.070859596962	-0.006792229636	0.180391247386
960.000000000000	-0.073082730092	0.032207014482	-2.239062046148	4.787126441210	0.078239733517	-0.071309315047	-0.005239449932	0.183089945828
970.000000000000	-0.073325498046	0.034976196525	-2.180696225652	4.809151988891	0.077465780041	-0.072016036650	-0.004188566731	0.184888130847
980.000000000000	-0.072563633367	0.036689252999	-2.126116797943	4.833801020271	0.076988786697	-0.072325937779	-0.002070847413	0.186706414158
990.000000000000	-0.072920050257	0.039815899992	-2.066958328574	4.852868610258	0.076295380473	-0.072528466053	-0.001090654714	0.189653808692
1000.000000000000	-0.073108888707	0.041223241361	-2.014464342938	4.873592977478	0.075614501203	-0.073317230069	0.000849076062	0.191403082136
1025.000000000000	-0.071272537572	0.045551126800	-1.871594823611	4.923567574697	0.073840077171	-0.074247968050	0.005544474607	0.196881702347
1050.000000000000	-0.069245217950	0.051296356439	-1.727175912267	4.965468200404	0.071949305498	-0.075686118867	0.009534254072	0.202433693701
1075.000000000000	-0.067343497065	0.057073399616	-1.582907581769	5.008555013970	0.070332120525	-0.076695319675	0.013996857286	0.206751015535
1100.000000000000	-0.065453012920	0.062004622681	-1.440275936076	5.044023731709	0.068585933321	-0.077502142373	0.018749073648	0.212157209961
1125.000000000000	-0.062959500625	0.066801117554	-1.293450408042	5.073043044235	0.066999327902	-0.078634765284	0.023850734497	0.217296886846
1150.000000000000	-0.058788337414	0.071740995796	-1.145869871812	5.100254346420	0.064663800914	-0.079586006161	0.029043267704	0.221980648140
1175.000000000000	-0.055058962408	0.076921994907	-0.998625925021	5.124719436833	0.062696475226	-0.080242190902	0.034268679606	0.226357704933
1200.000000000000	-0.051318281260	0.080930221589	-0.854986375358	5.141847479797	0.060913765568	-0.080759222149	0.040242511141	0.231221160529
1225.000000000000	-0.047180057167	0.085188486440	-0.705586055574	5.150131700051	0.059244736552	-0.081897813799	0.046108857570	0.235746395562
1250.000000000000	-0.042049100028	0.088787208539	-0.560363559192	5.164918097515	0.057329280927	-0.082541846861	0.051907440779	0.239723390142
1275.000000000000	-0.037438772124	0.092864295444	-0.413110479255	5.171799278389	0.055503721789	-0.083043705968	0.057885526188	0.243917569817
1300.000000000000	-0.032775746999	0.094626086179	-0.265487389343	5.174695232781	0.053611527045	-0.083852912636	0.064521471156	0.246959757814
1325.000000000000	-0.026700548509	0.097802003337	-0.121652306110	5.173072865116	0.051410783155	-0.084517129534	0.071097231537	0.251137617331
1350.000000000000	-0.021241936596	0.099783356399	0.025483752344	5.163869538468	0.050056062764	-0.085102576218	0.078152250682	0.254416581349
1375.000000000000	-0.015808040949	0.101926421436	0.173580536260	5.156201701720	0.047701892703	-0.085410360372	0.084498006257	0.257678750608
1400.000000000000	-0.009268531788	0.103812245292	0.315388161724	5.140128989136	0.045847375889	-0.086032142388	0.091789686173	0.261660603775
1425.000000000000	-0.002997858864	0.104530823244	0.459767375834	5.122288740160	0.043856767698	-0.086496112241	0.098731492141	0.264097783197
1450.000000000000	0.004223551894	0.104946638891	0.602731966766	5.101996375248	0.041835445189	-0.086771528586	0.106398916168	0.266367133229
1475.000000000000	0.010737821933	0.105084094339	0.747109953309	5.073736175917	0.039937073637	-0.087023400715	0.114066530346	0.269234305011
1500.000000000000	0.017407160554	0.104778002345	0.891171380580	5.040002148045	0.037838340665	-0.087404082934	0.122608494989	0.271456593841
1525.000000000000	0.025478307093	0.102520560968	1.022924762307	5.009725734955	0.035963101757	-0.087615234378	0.131250390754	0.272068562168
1550.000000000000	0.032267391560	0.100538166215	1.159860275588	4.974743990017	0.033866831372	-0.087709840125	0.139175980086	0.273858247494
1575.000000000000	0.039022529050	0.098572474947	1.295536282554	4.932872352707	0.031973876542	-0.087912989424	0.147315343567	0.275357760601
1600.000000000000	0.045240448129	0.095389192840	1.437773118811	4.892466068261	0.029994737206	-0.088081688739	0.155359727712	0.275757932872
1625.000000000000	0.051348545837	0.091655869766	1.573286931938	4.848924070335	0.027976456247	-0.088192403645	0.164028801347	0.276473263682
1650.000000000000	0.057778360400	0.087902179103	1.709267037588	4.794694100601	0.025922416336	-0.088191210531	0.172427064000	0.277324054158
1675.000000000000	0.064267192918	0.083454332173	1.839897445179	4.739950605181	0.023934183330	-0.087883313967	0.180903489776	0.277663542704
1700.000000000000	0.070534460373	0.078550693065	1.968692210345	4.678794400752	0.021730808919	-0.088293920180	0.190710167001	0.277370940603
1725.000000000000	0.075974937198	0.071584099113	2.097124898890	4.624221640479	0.019850597924	-0.088011664052	0.199238781857	0.275957506143
1750.000000000000	0.081828646860	0.065469988336	2.225923937516	4.559173846887	0.017783014837	-0.087684660404	0.208418983055	0.275727403785
1775.000000000000	0.086097014236	0.058907345670	2.356534734176	4.491762158483	0.015596102660	-0.087671586987	0.216850740848	0.274520469665
1800.000000000000	0.090502060696	0.051221035805	2.479756611687	4.424397450195	0.013801360443	-0.087347771201	0.226772899327	0.272550038468
1825.000000000000	0.095534400733	0.042616170415	2.600007718058	4.351473253009	0.011570616130	-0.086934970679	0.235686217389	0.270023840221
1850.000000000000	0.098535552625	0.033939904029	2.723824575703	4.279347920448	0.009458799238	-0.086794731449	0.244984566505	0.267585380580
1875.000000000000	0.101585382449	0.025796690269	2.843519968123	4.195415046728	0.007318129887	-0.086376873074	0.254496668845	0.264884715146
1900.000000000000	0.102639055296	0.014523905558	2.963702710698	4.118382598142	0.005334037679	-0.085925567323	0.263940868020	0.260529743164
1925.000000000000	0.104220321852	0.004084326444	3.086737078156	4.033248550964	0.002953123544	-0.085197060347	0.272994503929	0.256433826689
1950.000000000000	0.104783206170	-0.005415563459	3.200192507400	3.943387312454	0.001066527137	-0.084651651210	0.282326885907	0.252390536126
1975.000000000000	0.104024427874	-0.016040875442	3.315445146432	3.852543812514	-0.001255260704	-0.084027026513	0.292583838434	0.247627269624
2000.000000000000	0.103065528055	-0.026647614546	3.425396828025	3.752500042763	-0.003356446062	-0.082863393429	0.301590187030	0.242969303792
2025.000000000000	0.101537487399	-0.038244034150	3.535609904346	3.654745278680	-0.005403532250	-0.081881290993	0.310736910754	0.236370271533
2050.000000000000	0.099100712164	-0.048878511669	3.636589532511	3.553281437475	-0.007848006086	-0.080944938353	0.320336864337	0.230790888819
2075.000000000000	0.094687327256	-0.061381775092	3.752426306517	3.455359167612	-0.009941705595	-0.079837082145	0.328878421491	0.223262974800
2100.000000000000	0.089202695905	-0.073052359219	3.853290727813	3.347811502328	-0.012456645515	-0.078752955253	0.338008293129	0.216527625601
2125.000000000000	0.083711584472	-0.083276130217	3.956436475277	3.234027344588	-0.014450839465	-0.077060267782	0.346415424409	0.208162922881
2150.000000000000	0.076264774701	-0.095203881253	4.065250668842	3.123400944205	-0.016571840280	-0.075813820099	0.355705232178	0.199477826709
2175.000000000000	0.067625441496	-0.105674806374	4.163819033914	3.001894762358	-0.018737767196	-0.074378151748	0.363257493603	0.190251675876
2200.000000000000	0.058031031836	-0.115380062734	4.264448071466	2.877872819117	-0.020971887929	-0.072322748638	0.371206273354	0.181251390565
2225.000000000000	0.048077310100	-0.125375348461	4.359343794516	2.748348683534	-0.022481916042	-0.070723339373	0.379482079212	0.171191422872
2250.000000000000	0.036575372764	-0.134250737837	4.455999818842	2.619960210981	-0.024723812671	-0.068876905393	0.386770038617	0.160416500924
2275.000000000000	0.023803272368	-0.141900769105	4.543946340069	2.479497070173	-0.026646744822	-0.066559111162	0.393773019546	0.149626550856
2300.000000000000	0.010103549941	-0.149422429104	4.632281686878	2.338404884118	-0.028306071090	-0.064305016554	0.400041843773	0.137687288128
2325.000000000000	-0.003337384475	-0.155927043894	4.711040805916	2.196355273834	-0.030133979359	-0.061794789958	0.406591125982	0.125617985088
2350.000000000000	-0.018345144302	-0.160154673544	4.791293238995	2.048197662531	-0.032027150262	-0.059524793732	0.411720663619	0.113249422019
2375.000000000000	-0.034545367024	-0.163785568280	4.867854130629	1.890748367658	-0.033371309710	-0.056568478248	0.418103376543	0.100029644258
2400.000000000000	-0.050006337872	-0.167243201630	4.939002614592	1.735059782977	-0.034766559292	-0.053672780851	0.422735287924	0.085720961207
2425.000000000000	-0.066406312577	-0.169615877846	5.009841933301	1.580537207381	-0.035769049443	-0.050439532737	0.426181890692	0.071272929901
2450.000000000000	-0.082017364774	-0.168498955124	5.059168129403	1.414921834203	-0.036659505644	-0.047733528863	0.430794595596	0.057113149924
2475.000000000000	-0.102076336672	-0.169075004499	5.138889225083	1.246570432668	-0.037801119558	-0.044171102022	0.433108919159	0.039257425787
2500.000000000000	-0.120727297429	-0.165383460698	5.193076314157	1.061834723503	-0.038171085047	-0.040429266186	0.434169626865	0.024107377992
2525.000000000000	-0.138423383289	-0.159252986947	5.242173676117	0.878231202799	-0.038426667978	-0.037268254246	0.433589962490	0.007678252282
2550.000000000000	-0.156308889409	-0.149463699404	5.275169452776	0.681173787771	-0.038157718024	-0.033563235158	0.432542974475	-0.007743218250
2575.000000000000	-0.170688038750	-0.140324115546	5.292309747325	0.493829454786	-0.038048351539	-0.030236542009	0.432818990068	-0.022675433768
2600.000000000000	-0.186592695160	-0.135966390110	5.334559638504	0.319744456468	-0.037915226385	-0.026514212538	0.432716850093	-0.042695584814
2625.000000000000	-0.204824199820	-0.123009498297	5.362614631580	0.107449554617	-0.036879965890	-0.022388050083	0.427300313215	-0.060423130253
2650.000000000000	-0.219712348545	-0.108436917723	5.369737401939	-0.099738013268	-0.035658035549	-0.018617241393	0.422327224461	-0.077908497970
2675.000000000000	-0.233053084631	-0.092810281729	5.366246023746	-0.310699484958	-0.034042478084	-0.014965689705	0.415923407230	-0.095021655261
2700.000000000000	-0.243845065567	-0.075975099445	5.352471415470	-0.516612892836	-0.031828240317	-0.011663597422	0.408995210370	-0.111513711835
2725.000000000000	-0.253110179854	-0.058006700704	5.330830612736	-0.730689390157	-0.029407362928	-0.008228290926	0.400602013992	-0.128027520077
2750.000000000000	-0.260581784707	-0.037510716695	5.295680218776	-0.943146881616	-0.026753970031	-0.005062024749	0.391549614970	-0.143875983283
2775.000000000000	-0.262901386162	-0.022876104640	5.258623836140	-1.131116496548	-0.024690722739	-0.002455143885	0.384990788937	-0.161613006673
2800.000000000000	-0.270450819207	-0.002472539633	5.210436192952	-1.359704913177	-0.021047500850	0.000750428049	0.370604964024	-0.178080114491
2825.000000000000	-0.270167487509	0.017937021671	5.141390600053	-1.568694801259	-0.017269680127	0.003232737676	0.358747893436	-0.192036319497
2850.000000000000	-0.270912651217	0.038101388515	5.067762912644	-1.783705470865	-0.013436759440	0.005317396162	0.344036382015	-0.208089501337
2875.000000000000	-0.267147637414	0.058100507533	4.974403911314	-1.989854875143	-0.009452822502	0.007453144071	0.329157692176	-0.221439378032
2900.000000000000	-0.261117521476	0.076546902989	4.876297736620	-2.187475239221	-0.004987129567	0.008729620458	0.313937629469	-0.233888222818
2925.000000000000	-0.252145873649	0.093202156077	4.767210242862	-2.379028898562	-0.000574959570	0.009693035714	0.298474316241	-0.246492242236
2950.000000000000	-0.244056849201	0.107614878880	4.660039458846	-2.574226015025	0.003387115314	0.010343887433	0.281540880055	-0.261009862764
2975.000000000000	-0.233198409943	0.123453338760	4.522873915710	-2.764995838086	0.008529130023	0.010479535083	0.261917045946	-0.270536061529
3000.000000000000	-0.221112955481	0.135515446139	4.379999189368	-2.948855760409	0.013523162180	0.010231016860	0.242431146744	-0.280548116411
3025.000000000000	-0.203911338865	0.146533310170	4.221786490649	-3.106314658726	0.018325727919	0.008702859925	0.225335668005	-0.286684631753
3050.000000000000	-0.190309420308	0.151655505925	4.087912526484	-3.274656210109	0.021950375897	0.007611800715	0.205324434132	-0.300729750207
3075.000000000000	-0.178306264563	0.157867824389	3.909586552014	-3.439833587690	0.026771805860	0.006431427521	0.180910405903	-0.306367278196
3100.000000000000	-0.163329733209	0.160659364856	3.738695774176	-3.594655497560	0.030659434372	0.004518504497	0.158092981201	-0.313986704360
3125.000000000000	-0.146359208953	0.163306378994	3.543143913623	-3.729838875603	0.035438133522	0.001957755403	0.135235141354	-0.316015953058
3150.000000000000	-0.130044029694	0.162826158118	3.349770565437	-3.853058272303	0.039587557760	-0.001641518493	0.113341878464	-0.318170686274
3175.000000000000	-0.116281789147	0.157635055222	3.157681727651	-3.974600467183	0.043193243250	-0.004617529379	0.090069325149	-0.322347329486
3200.000000000000	-0.102277575610	0.151671110446	2.942816500206	-4.075939068643	0.046716789376	-0.008438473535	0.065591886177	-0.321610260141
3225.000000000000	-0.088165274694	0.142091075943	2.736518457896	-4.174413392189	0.049552991963	-0.012820926819	0.041794147332	-0.321961872874
3250.000000000000	-0.076735706731	0.132589775273	2.519914625485	-4.247699466781	0.052637625897	-0.017365168180	0.018224533503	-0.319289378059
3275.000000000000	-0.066897737904	0.120354140212	2.304405301176	-4.312628559659	0.054854011429	-0.021950746723	-0.004764456531	-0.315988144201
3300.000000000000	-0.059709731456	0.105171808796	2.084623839342	-4.369284406028	0.056589699413	-0.027223703404	-0.028592011469	-0.311617292123
3325.000000000000	-0.053101908578	0.089871812298	1.863667488353	-4.408276165195	0.058132591166	-0.032356264900	-0.052420662003	-0.305484847959
3350.000000000000	-0.049847706351	0.071155905375	1.648785493022	-4.443522405680	0.058682626806	-0.038462894436	-0.075094935598	-0.300406559248
3375.000000000000	-0.051399547996	0.052829241711	1.420391475755	-4.461172102492	0.058797710764	-0.043772441779	-0.099760377961	-0.291864334534
3400.000000000000	-0.051373221023	0.032012155734	1.207369026999	-4.463189944094	0.058694131859	-0.050239815222	-0.121727999792	-0.285649056734
3425.000000000000	-0.062976500731	0.011803946380	0.975033881607	-4.475458095490	0.056113979832	-0.054869049879	-0.151895136398	-0.277092439016
3450.000000000000	-0.070609954259	-0.002207682878	0.748232041987	-4.442298957270	0.055950453962	-0.059328665424	-0.174659573612	-0.259528417904
3475.000000000000	-0.080107253196	-0.020430861007	0.540217883908	-4.398888851771	0.054381963569	-0.064884586699	-0.194910325869	-0.245719722396
3500.000000000000	-0.097147192918	-0.038329477374	0.322549177840	-4.361790795498	0.051257448539	-0.070066128848	-0.219704423282	-0.233332424321
3525.000000000000	-0.112158842704	-0.051627580196	0.116425846677	-4.288687261098	0.049351097484	-0.074399893844	-0.239055942901	-0.212067703562
3550.000000000000	-0.130066949976	-0.066721553527	-0.078622884624	-4.216301955545	0.046360374773	-0.079110037873	-0.259122542085	-0.194772756369
3575.000000000000	-0.151553841457	-0.078861832762	-0.267097555363	-4.136663356687	0.042951986224	-0.083802979310	-0.278518005757	-0.177180396181
3600.000000000000	-0.174269832842	-0.088118309723	-0.450182618873	-4.040464636557	0.039009838289	-0.087706654487	-0.296498537955	-0.156583695591
3625.000000000000	-0.198208475776	-0.097399207847	-0.621462865342	-3.937058449745	0.035238668633	-0.092115060462	-0.312551079041	-0.136157171381
3650.000000000000	-0.225695192718	-0.102797097404	-0.788509567288	-3.825641854404	0.030479560675	-0.095013584557	-0.329301114843	-0.114235006217
3675.000000000000	-0.255059102348	-0.106881360668	-0.944924882582	-3.710816580042	0.024836438954	-0.098027625161	-0.345129880987	-0.092839234060
3700.000000000000	-0.286082648568	-0.103476956112	-1.096521326976	-3.576824756616	0.019071496211	-0.099632328430	-0.361459393973	-0.066663583650
3725.000000000000	-0.313378788887	-0.101760298463	-1.223872320845	-3.444791261289	0.014539129070	-0.101607938299	-0.371759274827	-0.042550589467
3750.000000000000	-0.340561547885	-0.094135953254	-1.338041454368	-3.297985762943	0.010051720166	-0.102268462744	-0.380730017224	-0.015791434552